256
Lattice="100 0.0 0.0 0.0 100 0.0 0.0 0.0 100" Properties="species:S:1:pos:R:3:vel:R:3:diameter:R:1" Time=0
C		0.0625      0.0625      0.0625      -3.0405      -0.5445      0.2186      0.5000
C		0.0625      0.1875      0.1875      -0.6208      0.5566      0.3230      0.5000
C		0.1875      0.1875      0.0625      1.2461      0.0407      -1.4749      0.5000
C		0.1875      0.0625      0.1875      -0.8059      0.2520      0.8520      0.5000
C		0.0625      0.0625      0.3125      0.6319      2.0698      1.9943      0.5000
C		0.0625      0.1875      0.4375      1.3842      -0.4514      -1.2504      0.5000
C		0.1875      0.1875      0.3125      -1.4923      -1.0394      -0.4779      0.5000
C		0.1875      0.0625      0.4375      0.6362      0.5738      -0.4540      0.5000
C		0.0625      0.0625      0.5625      0.6138      -1.1498      -0.8743      0.5000
C		0.0625      0.1875      0.6875      -1.5509      0.7150      -0.1166      0.5000
C		0.1875      0.1875      0.5625      0.7240      0.3926      0.7417      0.5000
C		0.1875      0.0625      0.6875      -0.5880      0.9753      0.8163      0.5000
C		0.0625      0.0625      0.8125      -1.2885      0.5957      -0.9468      0.5000
C		0.0625      0.1875      0.9375      0.6735      1.2257      -0.0242      0.5000
C		0.1875      0.1875      0.8125      0.1177      0.7947      -0.1126      0.5000
C		0.1875      0.0625      0.9375      2.0162      -0.7716      0.2969      0.5000
C		0.0625      0.3125      0.0625      -0.0944      -0.9722      -0.6616      0.5000
C		0.0625      0.4375      0.1875      -1.5186      -0.0275      -1.0724      0.5000
C		0.1875      0.4375      0.0625      2.3399      1.0308      0.1652      0.5000
C		0.1875      0.3125      0.1875      1.7500      0.3471      -1.2184      0.5000
C		0.0625      0.3125      0.3125      1.0600      -0.8026      -2.0182      0.5000
C		0.0625      0.4375      0.4375      -0.9446      -0.4927      -0.4018      0.5000
C		0.1875      0.4375      0.3125      -1.1146      1.0714      -1.0489      0.5000
C		0.1875      0.3125      0.4375      -1.5120      -0.2628      -0.2494      0.5000
C		0.0625      0.3125      0.5625      0.0027      0.9837      -1.3952      0.5000
C		0.0625      0.4375      0.6875      -1.6642      -0.2951      0.7489      0.5000
C		0.1875      0.4375      0.5625      2.1362      -0.3316      0.3786      0.5000
C		0.1875      0.3125      0.6875      -0.7668      -1.1815      0.8591      0.5000
C		0.0625      0.3125      0.8125      0.2840      -1.4608      0.1795      0.5000
C		0.0625      0.4375      0.9375      0.4700      0.1411      -4.3195      0.5000
C		0.1875      0.4375      0.8125      -0.6065      0.8120      -0.2151      0.5000
C		0.1875      0.3125      0.9375      -0.5486      -1.0039      2.0730      0.5000
C		0.0625      0.5625      0.0625      0.7035      0.4399      1.2119      0.5000
C		0.0625      0.6875      0.1875      -1.4527      -0.5520      0.1388      0.5000
C		0.1875      0.6875      0.0625      1.5838      -0.9829      -1.5087      0.5000
C		0.1875      0.5625      0.1875      -1.0500      -0.1165      -0.1302      0.5000
C		0.0625      0.5625      0.3125      -0.3198      0.3281      -1.3100      0.5000
C		0.0625      0.6875      0.4375      0.0443      1.0795      -0.0968      0.5000
C		0.1875      0.6875      0.3125      -0.3267      0.5540      0.7054      0.5000
C		0.1875      0.5625      0.4375      1.7722      -1.1359      -1.8943      0.5000
C		0.0625      0.5625      0.5625      0.4162      -0.9062      0.5031      0.5000
C		0.0625      0.6875      0.6875      1.0838      0.7213      -0.4174      0.5000
C		0.1875      0.6875      0.5625      0.7983      0.9236      0.3067      0.5000
C		0.1875      0.5625      0.6875      -0.4436      0.6719      -1.6580      0.5000
C		0.0625      0.5625      0.8125      -0.2407      3.1324      1.0780      0.5000
C		0.0625      0.6875      0.9375      0.3676      -0.5817      -0.4972      0.5000
C		0.1875      0.6875      0.8125      -0.8657      -0.0269      0.2005      0.5000
C		0.1875      0.5625      0.9375      0.5575      0.8093      -0.0645      0.5000
C		0.0625      0.8125      0.0625      -1.5530      -1.9161      -0.5015      0.5000
C		0.0625      0.9375      0.1875      -0.8595      -0.6950      -2.4073      0.5000
C		0.1875      0.9375      0.0625      -0.6833      0.0001      -2.3834      0.5000
C		0.1875      0.8125      0.1875      0.1009      0.2193      -0.5227      0.5000
C		0.0625      0.8125      0.3125      -0.8881      -0.1877      -0.9534      0.5000
C		0.0625      0.9375      0.4375      -0.9895      -0.2058      -0.5390      0.5000
C		0.1875      0.9375      0.3125      0.7586      0.4161      -0.4078      0.5000
C		0.1875      0.8125      0.4375      1.4485      0.3619      -1.1138      0.5000
C		0.0625      0.8125      0.5625      -0.6023      -1.2757      1.7521      0.5000
C		0.0625      0.9375      0.6875      0.7020      -0.9673      0.7435      0.5000
C		0.1875      0.9375      0.5625      0.4308      -0.7115      -0.1533      0.5000
C		0.1875      0.8125      0.6875      0.5880      2.3435      -1.5713      0.5000
C		0.0625      0.8125      0.8125      -0.5759      0.5290      0.2025      0.5000
C		0.0625      0.9375      0.9375      -1.5350      -1.6891      0.1032      0.5000
C		0.1875      0.9375      0.8125      -0.1761      0.4434      -0.1573      0.5000
C		0.1875      0.8125      0.9375      -0.2964      -0.8955      -0.0365      0.5000
C		0.3125      0.0625      0.0625      0.1727      -1.0301      1.6062      0.5000
C		0.3125      0.1875      0.1875      0.1783      1.0718      1.3209      0.5000
C		0.4375      0.1875      0.0625      -0.3752      0.5833      0.5696      0.5000
C		0.4375      0.0625      0.1875      -0.5999      -0.9719      0.4509      0.5000
C		0.3125      0.0625      0.3125      -1.2585      -1.5139      0.6849      0.5000
C		0.3125      0.1875      0.4375      -1.8250      -0.5908      -0.5169      0.5000
C		0.4375      0.1875      0.3125      -0.5945      -0.9734      1.3109      0.5000
C		0.4375      0.0625      0.4375      0.0075      -1.7918      -0.9840      0.5000
C		0.3125      0.0625      0.5625      -0.2631      1.1692      1.3650      0.5000
C		0.3125      0.1875      0.6875      0.3109      -0.9191      0.3912      0.5000
C		0.4375      0.1875      0.5625      -0.2080      -0.6789      -0.3325      0.5000
C		0.4375      0.0625      0.6875      1.3267      -1.3158      1.0526      0.5000
C		0.3125      0.0625      0.8125      0.8805      -1.1575      -1.3733      0.5000
C		0.3125      0.1875      0.9375      -0.4090      -0.8686      0.9973      0.5000
C		0.4375      0.1875      0.8125      -0.0656      -1.7492      -1.3043      0.5000
C		0.4375      0.0625      0.9375      -0.8703      0.1975      0.8389      0.5000
C		0.3125      0.3125      0.0625      -0.1772      1.4486      3.0845      0.5000
C		0.3125      0.4375      0.1875      -1.4401      0.6547      -0.7893      0.5000
C		0.4375      0.4375      0.0625      -0.7276      0.0115      1.4043      0.5000
C		0.4375      0.3125      0.1875      -0.0980      0.4362      1.0087      0.5000
C		0.3125      0.3125      0.3125      -1.1587      0.6039      -0.7956      0.5000
C		0.3125      0.4375      0.4375      0.5932      -2.7217      -1.2372      0.5000
C		0.4375      0.4375      0.3125      0.6385      0.0850      0.1185      0.5000
C		0.4375      0.3125      0.4375      0.9906      -1.3146      -0.6345      0.5000
C		0.3125      0.3125      0.5625      0.2743      0.4037      0.3506      0.5000
C		0.3125      0.4375      0.6875      0.5835      0.6253      0.6066      0.5000
C		0.4375      0.4375      0.5625      -0.1397      1.3722      1.5818      0.5000
C		0.4375      0.3125      0.6875      0.7505      1.0410      0.7041      0.5000
C		0.3125      0.3125      0.8125      3.0932      0.3252      1.0958      0.5000
C		0.3125      0.4375      0.9375      1.8077      0.6122      0.2992      0.5000
C		0.4375      0.4375      0.8125      -1.3523      0.1401      -0.3946      0.5000
C		0.4375      0.3125      0.9375      1.3017      2.2208      0.7802      0.5000
C		0.3125      0.5625      0.0625      1.0114      -0.3976      0.1692      0.5000
C		0.3125      0.6875      0.1875      -0.5979      0.8691      -0.1584      0.5000
C		0.4375      0.6875      0.0625      0.2509      -0.1058      -0.7517      0.5000
C		0.4375      0.5625      0.1875      1.5255      -0.0661      0.6990      0.5000
C		0.3125      0.5625      0.3125      -1.8290      -0.1813      0.4276      0.5000
C		0.3125      0.6875      0.4375      1.2596      1.2046      0.2174      0.5000
C		0.4375      0.6875      0.3125      0.0869      -1.0950      -0.2789      0.5000
C		0.4375      0.5625      0.4375      -0.3792      1.5188      0.4424      0.5000
C		0.3125      0.5625      0.5625      0.9475      0.7927      -0.2760      0.5000
C		0.3125      0.6875      0.6875      0.0146      -0.4161      0.2312      0.5000
C		0.4375      0.6875      0.5625      -1.9843      -0.1647      -0.5556      0.5000
C		0.4375      0.5625      0.6875      -0.7789      -0.9059      0.9373      0.5000
C		0.3125      0.5625      0.8125      0.0502      0.3492      0.4454      0.5000
C		0.3125      0.6875      0.9375      0.1267      0.6680      0.3409      0.5000
C		0.4375      0.6875      0.8125      0.1569      1.1710      -0.4413      0.5000
C		0.4375      0.5625      0.9375      0.1934      0.0365      -0.4798      0.5000
C		0.3125      0.8125      0.0625      -0.7725      0.8018      1.7035      0.5000
C		0.3125      0.9375      0.1875      -0.3865      0.5241      -0.5664      0.5000
C		0.4375      0.9375      0.0625      -0.0629      0.7265      0.1161      0.5000
C		0.4375      0.8125      0.1875      -0.7436      -0.1896      -1.2190      0.5000
C		0.3125      0.8125      0.3125      -0.8740      -0.7578      -0.3361      0.5000
C		0.3125      0.9375      0.4375      0.9073      1.9743      1.2792      0.5000
C		0.4375      0.9375      0.3125      0.5102      0.2995      -0.1158      0.5000
C		0.4375      0.8125      0.4375      0.2322      -0.0022      0.7837      0.5000
C		0.3125      0.8125      0.5625      0.2726      -0.1321      0.1448      0.5000
C		0.3125      0.9375      0.6875      0.9649      0.3692      1.0822      0.5000
C		0.4375      0.9375      0.5625      -0.8124      -0.6821      0.4971      0.5000
C		0.4375      0.8125      0.6875      0.9599      -0.1900      0.8262      0.5000
C		0.3125      0.8125      0.8125      -0.0203      0.5287      0.6708      0.5000
C		0.3125      0.9375      0.9375      0.2397      -0.3618      1.3119      0.5000
C		0.4375      0.9375      0.8125      1.1344      0.3173      -0.2984      0.5000
C		0.4375      0.8125      0.9375      -0.6538      1.6829      1.8213      0.5000
C		0.5625      0.0625      0.0625      0.2245      0.7997      -0.5908      0.5000
C		0.5625      0.1875      0.1875      -0.0675      0.2039      -0.0439      0.5000
C		0.6875      0.1875      0.0625      -1.3810      1.2403      0.3026      0.5000
C		0.6875      0.0625      0.1875      -0.0275      1.5571      0.1795      0.5000
C		0.5625      0.0625      0.3125      -1.5373      -0.0035      -0.4481      0.5000
C		0.5625      0.1875      0.4375      -0.7751      -0.8155      -0.4053      0.5000
C		0.6875      0.1875      0.3125      -2.2676      0.4869      0.5612      0.5000
C		0.6875      0.0625      0.4375      -0.0171      0.3922      1.9776      0.5000
C		0.5625      0.0625      0.5625      0.4299      -0.4966      1.1416      0.5000
C		0.5625      0.1875      0.6875      0.1150      0.7704      0.6746      0.5000
C		0.6875      0.1875      0.5625      0.1965      -0.7468      -1.4180      0.5000
C		0.6875      0.0625      0.6875      0.8696      0.7236      0.6058      0.5000
C		0.5625      0.0625      0.8125      1.3424      0.3443      0.4772      0.5000
C		0.5625      0.1875      0.9375      -2.0349      0.1469      -0.1139      0.5000
C		0.6875      0.1875      0.8125      0.0914      -1.7947      -2.3564      0.5000
C		0.6875      0.0625      0.9375      2.8550      -0.5935      0.2556      0.5000
C		0.5625      0.3125      0.0625      -0.6643      -0.1020      0.8541      0.5000
C		0.5625      0.4375      0.1875      0.7674      -0.0253      -0.0712      0.5000
C		0.6875      0.4375      0.0625      -0.5429      0.5838      -0.4825      0.5000
C		0.6875      0.3125      0.1875      -0.8625      0.6264      0.8402      0.5000
C		0.5625      0.3125      0.3125      -0.4410      0.2779      0.0007      0.5000
C		0.5625      0.4375      0.4375      -1.1045      -0.8902      0.1292      0.5000
C		0.6875      0.4375      0.3125      -0.3744      0.0511      0.1386      0.5000
C		0.6875      0.3125      0.4375      1.3704      -0.2089      0.6497      0.5000
C		0.5625      0.3125      0.5625      -2.3575      1.0258      0.7881      0.5000
C		0.5625      0.4375      0.6875      0.2358      0.5313      -0.0947      0.5000
C		0.6875      0.4375      0.5625      0.2295      1.1641      0.6765      0.5000
C		0.6875      0.3125      0.6875      -1.7682      -1.5262      -0.3580      0.5000
C		0.5625      0.3125      0.8125      1.7655      -0.1029      0.2588      0.5000
C		0.5625      0.4375      0.9375      0.1857      -1.1895      1.5489      0.5000
C		0.6875      0.4375      0.8125      -0.2261      -1.5739      -0.7557      0.5000
C		0.6875      0.3125      0.9375      0.2656      -0.2132      0.2475      0.5000
C		0.5625      0.5625      0.0625      -0.4498      0.9933      0.0068      0.5000
C		0.5625      0.6875      0.1875      1.0528      -0.8527      0.7176      0.5000
C		0.6875      0.6875      0.0625      -0.1410      -0.3129      0.0499      0.5000
C		0.6875      0.5625      0.1875      1.4405      -0.6940      -1.0498      0.5000
C		0.5625      0.5625      0.3125      -0.6085      1.0854      -1.9308      0.5000
C		0.5625      0.6875      0.4375      -0.7049      -1.2826      -1.4574      0.5000
C		0.6875      0.6875      0.3125      0.4617      0.2567      -0.1548      0.5000
C		0.6875      0.5625      0.4375      0.1455      -0.1263      -1.2797      0.5000
C		0.5625      0.5625      0.5625      1.0931      -0.4837      -0.4701      0.5000
C		0.5625      0.6875      0.6875      -0.4481      -0.4728      0.5945      0.5000
C		0.6875      0.6875      0.5625      1.3042      -0.9038      -1.5426      0.5000
C		0.6875      0.5625      0.6875      -0.8225      -1.9654      -1.9610      0.5000
C		0.5625      0.5625      0.8125      -1.9082      -1.8163      1.0671      0.5000
C		0.5625      0.6875      0.9375      -1.3081      -0.0953      -0.3563      0.5000
C		0.6875      0.6875      0.8125      -0.4461      0.7401      -1.1317      0.5000
C		0.6875      0.5625      0.9375      -0.4596      -2.9860      -0.5537      0.5000
C		0.5625      0.8125      0.0625      0.5364      0.8951      -0.3844      0.5000
C		0.5625      0.9375      0.1875      0.5930      0.3554      -0.0127      0.5000
C		0.6875      0.9375      0.0625      -0.8452      -0.0287      1.0468      0.5000
C		0.6875      0.8125      0.1875      -0.6258      -0.9935      1.6582      0.5000
C		0.5625      0.8125      0.3125      -0.0379      2.2630      -0.0926      0.5000
C		0.5625      0.9375      0.4375      -2.3426      0.0458      -0.9680      0.5000
C		0.6875      0.9375      0.3125      -0.8875      -1.0632      0.4913      0.5000
C		0.6875      0.8125      0.4375      0.1140      0.3716      -0.0520      0.5000
C		0.5625      0.8125      0.5625      -0.7870      0.1803      0.1250      0.5000
C		0.5625      0.9375      0.6875      0.9623      -0.6310      -0.2885      0.5000
C		0.6875      0.9375      0.5625      -0.0966      1.9906      -0.9413      0.5000
C		0.6875      0.8125      0.6875      -0.2326      0.3476      -1.7511      0.5000
C		0.5625      0.8125      0.8125      -1.3444      0.8305      -1.2032      0.5000
C		0.5625      0.9375      0.9375      0.2878      -0.6610      -0.9529      0.5000
C		0.6875      0.9375      0.8125      -1.0939      1.8052      0.7561      0.5000
C		0.6875      0.8125      0.9375      -1.3508      -0.1996      -0.4770      0.5000
C		0.8125      0.0625      0.0625      1.4344      -1.3048      -0.2459      0.5000
C		0.8125      0.1875      0.1875      -0.2603      -0.7612      -0.6459      0.5000
C		0.9375      0.1875      0.0625      0.5577      -0.6419      0.3293      0.5000
C		0.9375      0.0625      0.1875      0.2892      -1.6049      -0.0519      0.5000
C		0.8125      0.0625      0.3125      -0.3317      -1.2620      1.0560      0.5000
C		0.8125      0.1875      0.4375      0.5176      -0.4029      0.4700      0.5000
C		0.9375      0.1875      0.3125      -0.1528      -0.1358      -0.8182      0.5000
C		0.9375      0.0625      0.4375      -0.6175      -0.2827      1.0507      0.5000
C		0.8125      0.0625      0.5625      -0.3871      -0.2727      -0.9764      0.5000
C		0.8125      0.1875      0.6875      0.5884      2.1003      0.3248      0.5000
C		0.9375      0.1875      0.5625      0.9710      -2.1721      1.4827      0.5000
C		0.9375      0.0625      0.6875      0.3610      -1.4682      0.2523      0.5000
C		0.8125      0.0625      0.8125      0.8921      0.8770      -0.3589      0.5000
C		0.8125      0.1875      0.9375      -1.3268      0.3320      -0.7288      0.5000
C		0.9375      0.1875      0.8125      -1.0313      -0.6966      -0.0625      0.5000
C		0.9375      0.0625      0.9375      2.1434      -0.4492      2.0270      0.5000
C		0.8125      0.3125      0.0625      2.2644      -1.2140      0.1927      0.5000
C		0.8125      0.4375      0.1875      1.1353      0.1386      0.5666      0.5000
C		0.9375      0.4375      0.0625      0.8970      -0.6151      -1.4717      0.5000
C		0.9375      0.3125      0.1875      -1.3005      0.4560      -0.4285      0.5000
C		0.8125      0.3125      0.3125      -0.3670      0.0076      0.4813      0.5000
C		0.8125      0.4375      0.4375      -0.5176      1.2078      -0.2854      0.5000
C		0.9375      0.4375      0.3125      -0.3531      0.6117      1.3372      0.5000
C		0.9375      0.3125      0.4375      0.4677      0.9691      0.8499      0.5000
C		0.8125      0.3125      0.5625      0.4841      1.3289      -0.6812      0.5000
C		0.8125      0.4375      0.6875      0.2962      -0.3410      -1.5698      0.5000
C		0.9375      0.4375      0.5625      1.2161      -0.3584      -0.0781      0.5000
C		0.9375      0.3125      0.6875      -0.7729      -1.3186      0.3270      0.5000
C		0.8125      0.3125      0.8125      -0.2625      -1.0195      1.0539      0.5000
C		0.8125      0.4375      0.9375      -0.0395      0.5371      -0.4689      0.5000
C		0.9375      0.4375      0.8125      0.3657      -0.6486      -0.4210      0.5000
C		0.9375      0.3125      0.9375      -0.6863      1.6623      -0.4005      0.5000
C		0.8125      0.5625      0.0625      1.1152      1.4749      -0.2219      0.5000
C		0.8125      0.6875      0.1875      0.7866      1.1120      -0.9397      0.5000
C		0.9375      0.6875      0.0625      1.3642      0.4236      2.4282      0.5000
C		0.9375      0.5625      0.1875      -0.3684      -0.9424      -0.6629      0.5000
C		0.8125      0.5625      0.3125      0.9421      -0.0594      -1.6283      0.5000
C		0.8125      0.6875      0.4375      -0.5897      -0.1048      1.4953      0.5000
C		0.9375      0.6875      0.3125      0.5871      -0.2607      -1.4758      0.5000
C		0.9375      0.5625      0.4375      -0.0654      -0.0928      -0.1689      0.5000
C		0.8125      0.5625      0.5625      0.0424      -0.2451      -0.2502      0.5000
C		0.8125      0.6875      0.6875      -1.1228      1.2874      -1.0358      0.5000
C		0.9375      0.6875      0.5625      0.8927      -1.7097      -1.1216      0.5000
C		0.9375      0.5625      0.6875      -0.4692      -1.5791      0.2241      0.5000
C		0.8125      0.5625      0.8125      -1.0086      0.2289      0.2447      0.5000
C		0.8125      0.6875      0.9375      -0.2495      2.3403      0.6546      0.5000
C		0.9375      0.6875      0.8125      0.7819      0.4163      0.0906      0.5000
C		0.9375      0.5625      0.9375      -0.4352      -0.1044      0.1286      0.5000
C		0.8125      0.8125      0.0625      1.2111      1.1916      0.6893      0.5000
C		0.8125      0.9375      0.1875      0.9894      0.2638      0.9147      0.5000
C		0.9375      0.9375      0.0625      -1.6093      0.3464      -0.1098      0.5000
C		0.9375      0.8125      0.1875      1.5017      0.9467      -0.8314      0.5000
C		0.8125      0.8125      0.3125      -0.1472      -1.2919      1.0571      0.5000
C		0.8125      0.9375      0.4375      1.9721      -1.1997      0.6900      0.5000
C		0.9375      0.9375      0.3125      0.0790      2.4670      -1.8273      0.5000
C		0.9375      0.8125      0.4375      0.6186      -0.8659      0.9874      0.5000
C		0.8125      0.8125      0.5625      -1.3590      1.7665      1.0048      0.5000
C		0.8125      0.9375      0.6875      -0.4183      -0.0037      -0.6521      0.5000
C		0.9375      0.9375      0.5625      1.3851      -0.7989      0.1360      0.5000
C		0.9375      0.8125      0.6875      -2.1452      -0.7083      2.7164      0.5000
C		0.8125      0.8125      0.8125      1.1454      -0.9238      0.8110      0.5000
C		0.8125      0.9375      0.9375      1.1441      -0.2451      -0.0293      0.5000
C		0.9375      0.9375      0.8125      0.5610      0.8455      0.6533      0.5000
C		0.9375      0.8125      0.9375      2.1253      0.0219      -0.6168      0.5000


256
Lattice="100 0.0 0.0 0.0 100 0.0 0.0 0.0 100" Properties="species:S:1:pos:R:3:vel:R:3:diameter:R:1" Time=0
C		0.0625      0.0625      0.0625      -13.5977      -2.4349      0.9776      0.5000
C		0.0625      0.1875      0.1875      -2.7762      2.4890      1.4443      0.5000
C		0.1875      0.1875      0.0625      5.5729      0.1819      -6.5959      0.5000
C		0.1875      0.0625      0.1875      -3.6039      1.1272      3.8102      0.5000
C		0.0625      0.0625      0.3125      2.8257      9.2563      8.9189      0.5000
C		0.0625      0.1875      0.4375      6.1904      -2.0189      -5.5920      0.5000
C		0.1875      0.1875      0.3125      -6.6740      -4.6485      -2.1372      0.5000
C		0.1875      0.0625      0.4375      2.8451      2.5662      -2.0304      0.5000
C		0.0625      0.0625      0.5625      2.7450      -5.1421      -3.9098      0.5000
C		0.0625      0.1875      0.6875      -6.9357      3.1978      -0.5212      0.5000
C		0.1875      0.1875      0.5625      3.2379      1.7555      3.3170      0.5000
C		0.1875      0.0625      0.6875      -2.6298      4.3617      3.6507      0.5000
C		0.0625      0.0625      0.8125      -5.7624      2.6640      -4.2344      0.5000
C		0.0625      0.1875      0.9375      3.0118      5.4816      -0.1083      0.5000
C		0.1875      0.1875      0.8125      0.5266      3.5541      -0.5035      0.5000
C		0.1875      0.0625      0.9375      9.0167      -3.4505      1.3278      0.5000
C		0.0625      0.3125      0.0625      -0.4221      -4.3477      -2.9588      0.5000
C		0.0625      0.4375      0.1875      -6.7914      -0.1229      -4.7961      0.5000
C		0.1875      0.4375      0.0625      10.4644      4.6101      0.7388      0.5000
C		0.1875      0.3125      0.1875      7.8264      1.5521      -5.4490      0.5000
C		0.0625      0.3125      0.3125      4.7406      -3.5893      -9.0255      0.5000
C		0.0625      0.4375      0.4375      -4.2245      -2.2032      -1.7969      0.5000
C		0.1875      0.4375      0.3125      -4.9846      4.7915      -4.6910      0.5000
C		0.1875      0.3125      0.4375      -6.7617      -1.1751      -1.1152      0.5000
C		0.0625      0.3125      0.5625      0.0120      4.3993      -6.2394      0.5000
C		0.0625      0.4375      0.6875      -7.4425      -1.3196      3.3492      0.5000
C		0.1875      0.4375      0.5625      9.5535      -1.4828      1.6932      0.5000
C		0.1875      0.3125      0.6875      -3.4291      -5.2837      3.8420      0.5000
C		0.0625      0.3125      0.8125      1.2699      -6.5328      0.8026      0.5000
C		0.0625      0.4375      0.9375      2.1017      0.6310      -19.3172      0.5000
C		0.1875      0.4375      0.8125      -2.7125      3.6315      -0.9619      0.5000
C		0.1875      0.3125      0.9375      -2.4536      -4.4894      9.2709      0.5000
C		0.0625      0.5625      0.0625      3.1461      1.9672      5.4199      0.5000
C		0.0625      0.6875      0.1875      -6.4968      -2.4686      0.6207      0.5000
C		0.1875      0.6875      0.0625      7.0830      -4.3956      -6.7473      0.5000
C		0.1875      0.5625      0.1875      -4.6958      -0.5209      -0.5821      0.5000
C		0.0625      0.5625      0.3125      -1.4303      1.4672      -5.8583      0.5000
C		0.0625      0.6875      0.4375      0.1983      4.8279      -0.4328      0.5000
C		0.1875      0.6875      0.3125      -1.4611      2.4778      3.1546      0.5000
C		0.1875      0.5625      0.4375      7.9255      -5.0801      -8.4716      0.5000
C		0.0625      0.5625      0.5625      1.8612      -4.0527      2.2499      0.5000
C		0.0625      0.6875      0.6875      4.8469      3.2257      -1.8668      0.5000
C		0.1875      0.6875      0.5625      3.5699      4.1306      1.3715      0.5000
C		0.1875      0.5625      0.6875      -1.9837      3.0048      -7.4147      0.5000
C		0.0625      0.5625      0.8125      -1.0766      14.0085      4.8212      0.5000
C		0.0625      0.6875      0.9375      1.6439      -2.6013      -2.2236      0.5000
C		0.1875      0.6875      0.8125      -3.8715      -0.1205      0.8968      0.5000
C		0.1875      0.5625      0.9375      2.4934      3.6193      -0.2885      0.5000
C		0.0625      0.8125      0.0625      -6.9454      -8.5689      -2.2426      0.5000
C		0.0625      0.9375      0.1875      -3.8436      -3.1083      -10.7656      0.5000
C		0.1875      0.9375      0.0625      -3.0557      0.0005      -10.6587      0.5000
C		0.1875      0.8125      0.1875      0.4514      0.9808      -2.3376      0.5000
C		0.0625      0.8125      0.3125      -3.9719      -0.8394      -4.2638      0.5000
C		0.0625      0.9375      0.4375      -4.4250      -0.9206      -2.4106      0.5000
C		0.1875      0.9375      0.3125      3.3928      1.8609      -1.8239      0.5000
C		0.1875      0.8125      0.4375      6.4781      1.6185      -4.9811      0.5000
C		0.0625      0.8125      0.5625      -2.6935      -5.7051      7.8357      0.5000
C		0.0625      0.9375      0.6875      3.1396      -4.3258      3.3250      0.5000
C		0.1875      0.9375      0.5625      1.9265      -3.1819      -0.6854      0.5000
C		0.1875      0.8125      0.6875      2.6294      10.4804      -7.0270      0.5000
C		0.0625      0.8125      0.8125      -2.5754      2.3659      0.9058      0.5000
C		0.0625      0.9375      0.9375      -6.8647      -7.5539      0.4613      0.5000
C		0.1875      0.9375      0.8125      -0.7876      1.9830      -0.7035      0.5000
C		0.1875      0.8125      0.9375      -1.3256      -4.0048      -0.1633      0.5000
C		0.3125      0.0625      0.0625      0.7724      -4.6065      7.1831      0.5000
C		0.3125      0.1875      0.1875      0.7976      4.7934      5.9071      0.5000
C		0.4375      0.1875      0.0625      -1.6780      2.6084      2.5475      0.5000
C		0.4375      0.0625      0.1875      -2.6829      -4.3467      2.0165      0.5000
C		0.3125      0.0625      0.3125      -5.6284      -6.7702      3.0629      0.5000
C		0.3125      0.1875      0.4375      -8.1618      -2.6419      -2.3117      0.5000
C		0.4375      0.1875      0.3125      -2.6586      -4.3531      5.8624      0.5000
C		0.4375      0.0625      0.4375      0.0335      -8.0132      -4.4004      0.5000
C		0.3125      0.0625      0.5625      -1.1765      5.2289      6.1043      0.5000
C		0.3125      0.1875      0.6875      1.3905      -4.1105      1.7496      0.5000
C		0.4375      0.1875      0.5625      -0.9300      -3.0362      -1.4869      0.5000
C		0.4375      0.0625      0.6875      5.9330      -5.8845      4.7072      0.5000
C		0.3125      0.0625      0.8125      3.9377      -5.1765      -6.1417      0.5000
C		0.3125      0.1875      0.9375      -1.8291      -3.8846      4.4599      0.5000
C		0.4375      0.1875      0.8125      -0.2934      -7.8227      -5.8332      0.5000
C		0.4375      0.0625      0.9375      -3.8922      0.8834      3.7515      0.5000
C		0.3125      0.3125      0.0625      -0.7924      6.4781      13.7942      0.5000
C		0.3125      0.4375      0.1875      -6.4405      2.9277      -3.5300      0.5000
C		0.4375      0.4375      0.0625      -3.2540      0.0515      6.2802      0.5000
C		0.4375      0.3125      0.1875      -0.4381      1.9509      4.5110      0.5000
C		0.3125      0.3125      0.3125      -5.1819      2.7006      -3.5578      0.5000
C		0.3125      0.4375      0.4375      2.6530      -12.1718      -5.5330      0.5000
C		0.4375      0.4375      0.3125      2.8553      0.3801      0.5302      0.5000
C		0.4375      0.3125      0.4375      4.4302      -5.8791      -2.8374      0.5000
C		0.3125      0.3125      0.5625      1.2269      1.8052      1.5678      0.5000
C		0.3125      0.4375      0.6875      2.6097      2.7963      2.7127      0.5000
C		0.4375      0.4375      0.5625      -0.6246      6.1365      7.0739      0.5000
C		0.4375      0.3125      0.6875      3.3564      4.6555      3.1488      0.5000
C		0.3125      0.3125      0.8125      13.8331      1.4544      4.9005      0.5000
C		0.3125      0.4375      0.9375      8.0842      2.7379      1.3381      0.5000
C		0.4375      0.4375      0.8125      -6.0475      0.6264      -1.7649      0.5000
C		0.4375      0.3125      0.9375      5.8215      9.9319      3.4891      0.5000
C		0.3125      0.5625      0.0625      4.5230      -1.7782      0.7569      0.5000
C		0.3125      0.6875      0.1875      -2.6740      3.8869      -0.7082      0.5000
C		0.4375      0.6875      0.0625      1.1220      -0.4731      -3.3617      0.5000
C		0.4375      0.5625      0.1875      6.8222      -0.2958      3.1260      0.5000